# vtk DataFile Version 3.0
d-2__ created by libgimli-v1.5.0
ASCII
DATASET UNSTRUCTURED_GRID
POINTS 933 double
-3	0	0
-3	-9	0
25.5	-9	0
25.5	0	0
-93	0	0
-93	-99	0
115.5	0	0
115.5	-99	0
0	0	0
0.75	0	0
1.5	0	0
2.25	0	0
3	0	0
3.75	0	0
4.5	0	0
5.25	0	0
6	0	0
6.75	0	0
7.5	0	0
8.25	0	0
9	0	0
9.75	0	0
10.5	0	0
11.25	0	0
12	0	0
12.75	0	0
13.5	0	0
14.25	0	0
15	0	0
15.75	0	0
16.5	0	0
17.25	0	0
18	0	0
18.75	0	0
19.5	0	0
20.25	0	0
21	0	0
21.75	0	0
22.5	0	0
11.25	-9	0
0.29850596798612	-0.9513265017381	0
19.020257438714	-1.011582151319	0
10.220241740248	-0.95995724616191	0
6.2936181480177	-0.91335584932114	0
15.186360294235	-0.87945266671817	0
3.4528298539054	-0.993779401178	0
1.8356300652949	-0.98910254921211	0
1.0739009858136	-0.6983258792773	0
22.143763002907	-1.0361864858007	0
20.644260007116	-0.98515718558536	0
19.854624911258	-0.73328011632408	0
18.276555527329	-0.63828821941119	0
12.391344719465	-1.0216855710014	0
10.976834411115	-0.58869644633371	0
9.3612217363874	-0.65898532028319	0
7.9377800182085	-0.98058662564102	0
7.1135332259738	-0.67288394919471	0
5.5601895790968	-0.55726350248151	0
14.526197188699	-0.48918952777472	0
16.901066795979	-0.97601697616749	0
16.060166463885	-0.70175952343205	0
4.3730028435564	-0.77309057027518	0
2.641296599808	-0.7244345863732	0
21.398524928109	-0.72888221794208	0
17.673448020524	-0.63251753681262	0
13.382197206626	-0.73118863812063	0
11.588576090796	-0.59833446357196	0
8.7306386769932	-0.66175912111417	0
4.9898450645328	-0.5336005577319	0
13.975489170137	-0.46415513771573	0
17.94102859943	-1.5506196110204	0
11.322959125653	-1.3709598408138	0
9.1002922063109	-1.6584623607294	0
0.78110614742094	-2.3960175851051	0
13.456509509943	-1.7912270283197	0
5.2595165017835	-1.3334707486761	0
14.218792943129	-1.0947268363569	0
0.11374209668657	-2.9006461872513	0
14.786027752859	-2.2056025277464	0
0.96873747725382	-1.552391858103	0
19.859890773858	-1.6748185904749	0
7.0807045626414	-1.46176135433	0
15.964275892795	-1.6513158896494	0
2.6536192913296	-1.6400616506387	0
21.454956367426	-1.6274577269288	0
0.075035205077851	-1.9705561709613	0
19.984618342899	-2.690280932998	0
7.772544825101	-2.3776968136118	0
18.96416305553	-2.497231343647	0
1.7082914836663	-2.3126417392456	0
0.9438755418582	-3.2536337779487	0
20.694337301619	-2.1474932749691	0
22.294364180916	-2.1138229664567	0
-3	-4	0
-0.62498447255148	-2.5359140924033	0
25.5	-4	0
18.375	-9	0
4.125	-9	0
0.053336176419964	-3.9062357795724	0
16.965258647169	-3.9481408533627	0
20.668022636897	-3.153092452428	0
-1.1815821299011	-4.4476928103649	0
19.739864545802	-3.9999866191882	0
12.234676759486	-2.6271723883201	0
1.9149529090415	-3.5866726846285	0
21.555265443864	-2.7668185284959	0
16.922340576129	-2.2967594574978	0
9.143746409683	-3.5325269810826	0
1.0148060339165	-4.4288253348904	0
18.373883226823	-3.7559758237005	0
15.931770578063	-2.8455770610562	0
17.83313760296	-2.8093665351089	0
-3	-2	0
15.021610822002	-4.1207429716519	0
18.369466296287	-5.5313796372321	0
-1.1187573863117	-1.4896215162531	0
-0.6422349125351	-3.3517994866794	0
4.2680877997234	-1.7705999977367	0
22.852862048973	-3.3919054222989	0
23.465163468335	-1.7567947739267	0
21.367460969034	-4.1765990131815	0
10.521277932636	-2.4078820980187	0
6.2696721197258	-2.3464190792741	0
13.723734919047	-3.0395461964048	0
3.442037331238	-2.0454441790546	0
2.788646225881	-2.7776538503165	0
25.5	-6.5	0
11.101063280446	-4.2834194280723	0
4.0054388339724	-3.0439707404171	0
-1.5933446707345	-2.9707175863606	0
5.0317587742984	-2.4269684057065	0
-0.0048478702635985	-5.0638799062908	0
2.9588592539315	-4.0367282442939	0
5.3338374954612	-3.6330258611591	0
1.9834510662989	-4.7177086781378	0
4.1446786586238	-4.6070860501634	0
7.0784762686884	-4.2606444069849	0
0.5625	-9	0
2.8488733017903	-5.4874787971763	0
13.118364065117	-4.4412629681771	0
-3	-6.5	0
5.4266407281299	-5.0981929298715	0
4.243170661418	-6.3363721917223	0
7.6875	-9	0
6.3063942969674	-6.6461193302751	0
14.8125	-9	0
12.311719985918	-6.4963493418171	0
21.9375	-9	0
-35	0	0
1.1339468843785	-6.0514271131564	0
14.314814511743	-6.0680241809575	0
-19	0	0
16.309739812003	-6.2781692453798	0
-11	0	0
-7	0	0
-5.9466314551584	-2.9654692408441	0
-5	0	0
-1.0775783493179	-6.4886786809403	0
2.5842438359112	-7.1750674111569	0
9.2688610652595	-6.174728029888	0
-2.0636887597609	-5.3589635540845	0
22.935258170725	-5.5456576773186	0
20.454050155786	-6.2086392270842	0
-5.3567940493069	-5.603110071896	0
70.5	0	0
-5.7509887234338	-8.0520553835324	0
41.5	0	0
-9.073206080027	-6.5061973144347	0
11.25	-99	0
-9.1877363782365	-2.6572278826994	0
33.5	0	0
29.516639684934	-8.6479664021924	0
-12.909906372326	-3.818187305155	0
35.201972159554	-10.881060681684	0
-8.2847620741071	-12.667994969314	0
21.006438837371	-18.168857229695	0
16.49507666578	-14.203180001215	0
5.0255771658566	-12.427675263794	0
2.0564235142926	-12.353613471372	0
24.491535207708	-14.086448328787	0
-1.9984154807167	-13.668249131807	0
8.6953828789889	-14.144768355607	0
30.022867939932	-13.920145748857	0
2.633266819576	-17.735490466905	0
28.13507372023	-21.913033896993	0
-15	0	0
-17.147341159547	-3.9525564747462	0
12.519155072827	-16.745104853122	0
21.029398166791	-25.290965201099	0
-27	0	0
-16.001658225227	-9.8039388054816	0
15.642387831723	-21.299659460596	0
37.401343687589	-19.365127425811	0
-5.8525825012776	-21.336841593183	0
28.719537730545	-5.2484660293885	0
32.282015798715	-6.6715551265832	0
29.5	0	0
28.129476107441	-2.5007064667982	0
31.446699495202	-3.2938327908852	0
36.577680863736	-5.4156143579058	0
9.1201580590202	-21.721042463064	0
20.458186083653	-12.881942042844	0
1.5690452825634	-28.705081924882	0
45.571484485161	-11.768868408225	0
-49.5	0	0
26.737347034733	-33.623349441885	0
-22.75920879376	-6.1524034284273	0
-31.754187444087	-7.9985067162473	0
12.752352216262	-12.612769479196	0
13.814121270718	-31.944603352701	0
-25.54519664455	-15.175791393522	0
-64	0	0
49.129076818903	-28.537060203099	0
36.474675667314	-29.651478495409	0
41.04861751661	-45.096451344702	0
56	0	0
-16.129716038192	-20.39519024554	0
-12.667221545482	-35.016684997572	0
-28.234220478607	-28.457218127042	0
20.155369773532	-48.496608315652	0
-38.168702636076	-18.308207668568	0
-93	-49.5	0
-41.894810920517	-8.3798782238381	0
-54.998744803391	-15.600255193291	0
63.251365670558	-18.438690332637	0
-46.435282805638	-34.267142359164	0
115.5	-49.5	0
-93	-24.75	0
87.178476782317	-23.053636042776	0
2.610647034154	-44.776269482179	0
63.375	-99	0
-40.875	-99	0
5.0307231313463	-70.661645460246	0
-12.081207475085	-54.015485729238	0
-74.98594113659	-14.769069091631	0
-30.240820344556	-47.651130413666	0
-69.897980103859	-33.501941783993	0
-24.992936179351	-72.072346626861	0
-56.923624680868	-62.140344513876	0
-14.8125	-99	0
71.161545883589	-47.428340820766	0
31.869427819431	-65.214953844615	0
37.3125	-99	0
51.967029325673	-63.207428513699	0
26.421525816237	-82.979690124202	0
46.674612024556	-81.11191626744	0
69.124255766714	-77.356187165416	0
89.4375	-99	0
92.143697209873	-74.452318150857	0
-7.4120974017304	-7.2791263489835	0
-8.6789840770671	-9.5870961418743	0
-7.0178753987705	-10.360025176423	0
14.372495065914	-0.79195818206583	0
14.702576618682	-0.98708975153755	0
14.856278741467	-0.68432109724645	0
-1.21875	-9	0
-2.4992077403584	-11.334124565904	0
-0.71795774035836	-11.334124565904	0
-6	0	0
-6.4733157275792	-1.4827346204221	0
-5.4733157275792	-1.4827346204221	0
-0.25753917465894	-7.7443393404701	0
-2.0387891746589	-7.7443393404701	0
10.738417205557	-0.29434822316685	0
10.360120870124	-0.47997862308095	0
10.598538075681	-0.77432684624781	0
0.52425298399306	-0.47566325086905	0
0.68620347689988	-0.8248261905077	0
0.91195049290682	-0.34916293963865	0
-0.55937869315585	-0.74481075812654	0
-1.5	0	0
-2.0593786931558	-0.74481075812654	0
17.461724010262	-0.31625876840631	0
17.836724010262	-0.31625876840631	0
17.625	0	0
1.2869504929068	-0.34916293963865	0
1.125	0	0
3.2264149269527	-0.496889700589	0
2.820648299904	-0.3622172931866	0
3.0470632268567	-0.8591069937756	0
10.125	0	0
9.9851208701241	-0.47997862308095	0
0.14925298399306	-0.47566325086905	0
0.375	0	0
18.138277763665	-0.3191441097056	0
18.513277763665	-0.3191441097056	0
18.375	0	0
2.625	0	0
2.445648299904	-0.3622172931866	0
5.7765673249006	-1.1234132989986	0
5.9269038635573	-0.73530967590132	0
5.4098530404402	-0.9453671255788	0
5.4050947895484	-0.27863175124075	0
5.7800947895484	-0.27863175124075	0
5.625	0	0
6.1468090740088	-0.45667792466057	0
18.648406483022	-0.82493518536509	0
18.108792063379	-1.0944539152158	0
18.480643019072	-1.2811008811697	0
3.9129163487309	-0.88343498572659	0
4.0615014217782	-0.38654528513759	0
3.6014149269527	-0.496889700589	0
9.2307569713492	-1.1587238405063	0
9.6602669732795	-1.3092098034456	0
9.7907317383178	-0.80947128322255	0
18.885128719357	-0.50579107565949	0
3.0478283112838	-1.8427529148467	0
2.7211327586053	-2.2088577504776	0
3.1153417785595	-2.4115490146856	0
4.875	0	0
4.7449225322664	-0.26680027886595	0
5.1199225322664	-0.26680027886595	0
3.375	0	0
9.5556108681937	-0.3294926601416	0
1.6678150326475	-0.49455127460606	0
2.0428150326475	-0.49455127460606	0
1.875	0	0
6.9317666129869	-0.33644197459736	0
7.3067666129869	-0.33644197459736	0
7.125	0	0
8.4903193384966	-0.33087956055708	0
8.8653193384966	-0.33087956055708	0
8.625	0	0
1.0213192315337	-1.1253588686902	0
0.63362172261997	-1.2518591799206	0
6.7035756869958	-0.79311989925793	0
6.5218090740088	-0.45667792466057	0
1.4021837712744	-1.2707472036576	0
1.4547655255543	-0.8437142142447	0
6.375	0	0
3.0532245726175	-1.3169205259084	0
2.6474579455688	-1.182248118506	0
8.1914414394944	-11.572384177804	0
9.9726914394944	-11.572384177804	0
9.46875	-9	0
9.375	0	0
9.1806108681937	-0.3294926601416	0
20.252075390487	-1.3299878880301	0
20.277114037739	-1.911155932722	0
20.669298654367	-1.5663252302772	0
10.875	0	0
11.113417205557	-0.29434822316685	0
15.358899165461	-2.5255897944013	0
15.948023235429	-2.2484464753528	0
15.375151822827	-1.9284592086979	0
15.093180147117	-0.43972633335909	0
14.763098594349	-0.24459476388736	0
[...]
CELL_DATA 1744
SCALARS Marker double 1
LOOKUP_TABLE default
-1 -1 -1 -1 0 0 0 0 -1 -1 -1 -1 -1 -1 -1 -1 1 1 1 1 2 2 2 2 3 3 3 3 4 4 4 4 5 5 5 5 6 6 6 6 7 7 7 7 8 8 8 8 9 9 9 9 10 10 10 10 11 11 11 11 12 12 12 12 13 13 13 13 14 14 14 14 15 15 15 15 16 16 16 16 17 17 17 17 18 18 18 18 19 19 19 19 20 20 20 20 21 21 21 21 22 22 22 22 23 23 23 23 24 24 24 24 25 25 25 25 26 26 26 26 27 27 27 27 28 28 28 28 29 29 29 29 30 30 30 30 -1 -1 -1 -1 31 31 31 31 32 32 32 32 33 33 33 33 34 34 34 34 35 35 35 35 36 36 36 36 37 37 37 37 38 38 38 38 -1 -1 -1 -1 -1 -1 -1 -1 39 39 39 39 40 40 40 40 41 41 41 41 42 42 42 42 43 43 43 43 44 44 44 44 45 45 45 45 -1 -1 -1 -1 46 46 46 46 47 47 47 47 48 48 48 48 49 49 49 49 50 50 50 50 51 51 51 51 52 52 52 52 53 53 53 53 54 54 54 54 55 55 55 55 56 56 56 56 57 57 57 57 58 58 58 58 -1 -1 -1 -1 59 59 59 59 60 60 60 60 61 61 61 61 62 62 62 62 63 63 63 63 64 64 64 64 65 65 65 65 66 66 66 66 67 67 67 67 68 68 68 68 69 69 69 69 70 70 70 70 71 71 71 71 72 72 72 72 73 73 73 73 74 74 74 74 75 75 75 75 76 76 76 76 77 77 77 77 78 78 78 78 79 79 79 79 80 80 80 80 81 81 81 81 82 82 82 82 83 83 83 83 84 84 84 84 85 85 85 85 86 86 86 86 87 87 87 87 88 88 88 88 89 89 89 89 90 90 90 90 91 91 91 91 92 92 92 92 93 93 93 93 94 94 94 94 95 95 95 95 96 96 96 96 97 97 97 97 98 98 98 98 99 99 99 99 100 100 100 100 101 101 101 101 102 102 102 102 103 103 103 103 104 104 104 104 105 105 105 105 106 106 106 106 107 107 107 107 108 108 108 108 109 109 109 109 110 110 110 110 111 111 111 111 112 112 112 112 113 113 113 113 114 114 114 114 115 115 115 115 116 116 116 116 117 117 117 117 118 118 118 118 -1 -1 -1 -1 -1 -1 -1 -1 119 119 119 119 -1 -1 -1 -1 120 120 120 120 121 121 121 121 122 122 122 122 123 123 123 123 124 124 124 124 125 125 125 125 126 126 126 126 127 127 127 127 128 128 128 128 129 129 129 129 130 130 130 130 131 131 131 131 132 132 132 132 133 133 133 133 134 134 134 134 135 135 135 135 136 136 136 136 137 137 137 137 138 138 138 138 139 139 139 139 140 140 140 140 141 141 141 141 142 142 142 142 143 143 143 143 144 144 144 144 145 145 145 145 146 146 146 146 147 147 147 147 148 148 148 148 149 149 149 149 150 150 150 150 151 151 151 151 -1 -1 -1 -1 152 152 152 152 153 153 153 153 154 154 154 154 155 155 155 155 156 156 156 156 157 157 157 157 158 158 158 158 -1 -1 -1 -1 159 159 159 159 160 160 160 160 161 161 161 161 162 162 162 162 163 163 163 163 164 164 164 164 165 165 165 165 166 166 166 166 167 167 167 167 168 168 168 168 169 169 169 169 170 170 170 170 171 171 171 171 172 172 172 172 173 173 173 173 174 174 174 174 175 175 175 175 176 176 176 176 177 177 177 177 178 178 178 178 179 179 179 179 180 180 180 180 181 181 181 181 182 182 182 182 183 183 183 183 184 184 184 184 185 185 185 185 186 186 186 186 187 187 187 187 -1 -1 -1 -1 188 188 188 188 189 189 189 189 190 190 190 190 191 191 191 191 192 192 192 192 193 193 193 193 194 194 194 194 195 195 195 195 196 196 196 196 197 197 197 197 198 198 198 198 199 199 199 199 200 200 200 200 201 201 201 201 202 202 202 202 203 203 203 203 204 204 204 204 205 205 205 205 206 206 206 206 207 207 207 207 208 208 208 208 209 209 209 209 210 210 210 210 211 211 211 211 212 212 212 212 213 213 213 213 214 214 214 214 -1 -1 -1 -1 215 215 215 215 216 216 216 216 217 217 217 217 218 218 218 218 219 219 219 219 -1 -1 -1 -1 220 220 220 220 221 221 221 221 222 222 222 222 223 223 223 223 224 224 224 224 225 225 225 225 226 226 226 226 227 227 227 227 228 228 228 228 229 229 229 229 230 230 230 230 231 231 231 231 -1 -1 -1 -1 232 232 232 232 233 233 233 233 234 234 234 234 235 235 235 235 236 236 236 236 237 237 237 237 238 238 238 238 239 239 239 239 240 240 240 240 -1 -1 -1 -1 241 241 241 241 242 242 242 242 243 243 243 243 244 244 244 244 -1 -1 -1 -1 245 245 245 245 -1 -1 -1 -1 -1 -1 -1 -1 -1 -1 -1 -1 -1 -1 -1 -1 -1 -1 -1 -1 246 246 246 246 247 247 247 247 248 248 248 248 249 249 249 249 250 250 250 250 251 251 251 251 252 252 252 252 253 253 253 253 254 254 254 254 -1 -1 -1 -1 255 255 255 255 256 256 256 256 -1 -1 -1 -1 -1 -1 -1 -1 -1 -1 -1 -1 -1 -1 -1 -1 -1 -1 -1 -1 -1 -1 -1 -1 -1 -1 -1 -1 -1 -1 -1 -1 -1 -1 -1 -1 -1 -1 -1 -1 -1 -1 -1 -1 -1 -1 -1 -1 -1 -1 -1 -1 -1 -1 -1 -1 -1 -1 -1 -1 -1 -1 -1 -1 -1 -1 -1 -1 -1 -1 -1 -1 -1 -1 -1 -1 -1 -1 -1 -1 -1 -1 -1 -1 -1 -1 -1 -1 -1 -1 -1 -1 -1 -1 -1 -1 -1 -1 -1 -1 -1 -1 -1 -1 -1 -1 -1 -1 -1 -1 -1 -1 -1 -1 -1 -1 -1 -1 -1 -1 -1 -1 -1 -1 -1 -1 -1 -1 -1 -1 -1 -1 -1 -1 -1 -1 -1 -1 -1 -1 -1 -1 -1 -1 -1 -1 -1 -1 -1 -1 -1 -1 -1 -1 -1 -1 -1 -1 -1 -1 -1 -1 -1 -1 -1 -1 -1 -1 -1 -1 -1 -1 -1 -1 -1 -1 -1 -1 -1 -1 -1 -1 -1 -1 -1 -1 -1 -1 -1 -1 -1 -1 -1 -1 -1 -1 -1 -1 -1 -1 -1 -1 -1 -1 -1 -1 -1 -1 -1 -1 -1 -1 -1 -1 -1 -1 -1 -1 -1 -1 -1 -1 -1 -1 -1 -1 -1 -1 -1 -1 -1 -1 -1 -1 -1 -1 -1 -1 -1 -1 -1 -1 -1 -1 -1 -1 -1 -1 -1 -1 -1 -1 -1 -1 -1 -1 -1 -1 -1 -1 -1 -1 -1 -1 -1 -1 -1 -1 -1 -1 -1 -1 -1 -1 -1 -1 -1 -1 -1 -1 -1 -1 -1 -1 -1 -1 -1 -1 -1 -1 -1 -1 -1 -1 -1 -1 -1 -1 -1 -1 -1 -1 -1 -1 -1 -1 -1 -1 -1 -1 -1 -1 -1 -1 -1 -1 -1 -1 -1 -1 -1 -1 -1 -1 -1 -1 -1 -1 -1 -1 -1 -1 -1 -1 -1 -1 -1 -1 -1 -1 -1 -1 -1 -1 -1 -1 -1 -1 -1 -1 -1 -1 -1 -1 -1 -1 -1 -1 -1 -1 -1 -1 -1 -1 -1 -1 -1 -1 -1 -1 -1 -1 -1 -1 -1 -1 -1 -1 -1 -1 -1 -1 -1 -1 -1 -1 -1 -1 -1 -1 -1 -1 -1 -1 -1 -1 -1 -1 -1 -1 -1 -1 -1 -1 -1 -1 -1 -1 -1 -1 -1 -1 -1 -1 -1 -1 -1 -1 -1 -1 -1 -1 -1 -1 -1 -1 -1 -1 -1 -1 -1 -1 -1 -1 -1 -1 -1 -1 -1 -1 -1 -1 -1 -1 -1 -1 -1 -1 -1 -1 -1 -1 -1 -1 -1 -1 -1 -1 -1 -1 -1 -1 -1 -1 -1 -1 -1 -1 -1 -1 -1 -1 -1 -1 -1 -1 -1 -1 -1 -1 -1 -1 -1 -1 -1 -1 -1 -1 -1 -1 -1 -1 -1 -1 -1 -1 -1 -1 -1 -1 -1 -1 -1 -1 -1 -1 -1 -1 -1 -1 -1 -1 -1 -1 -1 -1 -1 -1 -1 -1 -1 -1 -1 -1 -1 -1 -1 -1 -1 -1 -1 -1 -1 -1 -1 -1 -1 -1 -1 -1 -1 -1 -1 -1 -1 -1 -1 -1 -1 -1 -1 -1 -1 -1 -1 -1 -1 -1 -1 -1 -1 -1 -1 -1 -1 -1 -1 -1 -1 -1 -1 -1 -1 -1 -1 -1 -1 -1 -1 -1 -1 -1 -1 -1 -1 -1 -1 -1 -1 -1 -1 -1 -1 -1 -1 -1 -1 -1 -1 -1 -1 -1 -1 -1 -1 -1 -1 -1 -1 -1 -1 -1 -1 -1 -1 -1 
POINT_DATA 933
SCALARS ab-pot double 1
LOOKUP_TABLE default
-0.28162277024056 -0.23531051414263 0.40487805384939 0.41607865339317 -0.097558774213019 -0.07528890323673 0.25726202158415 0.20784105676601 -0.33533285601341 -0.36278188591009 -0.36517728028326 -0.37471385685072 -0.38786533661253 -0.40075343847676 -0.41282462535304 -0.42921296496513 -0.44289186523527 -0.48987026912624 -0.49330277028255 -0.50940252677356 -0.53697614909849 -0.56038525603682 -0.57473971336766 -0.60739733321434 -0.65637234207989 -0.72460699943604 -0.98359921576775 -0.80696241874976 1 0.64932518610014 0.64293079673688 0.54076123540968 0.5332109688485 0.48276173350152 0.47546042507521 0.45380836956438 0.4522499030102 0.45112214519946 0.46667396714131 -0.2113635638123 -0.36019564332173 0.48228496247782 -0.57969877262623 -0.43492895006302 0.67553869555905 -0.39300965388046 -0.3644587676663 -0.36339422972691 0.44946386656804 0.45726794816602 0.48173342507811 0.48768472178354 -0.66047495764432 -0.60058639745486 -0.55301211017787 -0.49865158319356 -0.49057008120024 -0.43305436839107 0.6789689048431 0.54561625748469 0.65112613052085 -0.4035460719139 -0.38941983353731 0.45123278522427 0.53884657793916 -0.71597748710194 -0.60245725247193 -0.53326563303506 -0.42742723607894 -0.71923518733747 0.48945177841678 -0.60153843623957 -0.45723819345583 -0.34500886267893 -0.50251097955579 -0.43353205231508 0.59331639123558 -0.32236813157144 0.56731870441813 -0.36148242624013 0.48170369248537 -0.43620014028068 0.4899573142684 -0.39108934887643 0.44855154131166 -0.33413196649731 0.40944575684036 -0.45710147160049 0.51062814789627 -0.36462510199346 -0.33868159357274 0.4457241669084 0.44117319600456 -0.2709752494013 -0.30602534892834 0.41298473882737 0.42023486185411 -0.21668151002647 -0.30908457318977 0.48120908318661 0.43618108168934 -0.28096567654742 0.44281056866932 -0.50100683111138 -0.35556259499894 0.43887081337627 0.48166381860961 -0.45708055972226 -0.3170731689693 0.46842080173932 0.48159426412234 0.4801945473114 -0.28039805477574 0.48163808868567 0.44633621340234 -0.29113351351685 -0.3009845861894 -0.39203726043459 0.43030469851848 0.43016725038935 0.43327298030249 -0.46159893084388 -0.43284307404165 -0.50090392187534 -0.39114041824643 -0.38519672975436 0.40929593400562 -0.50200540477508 -0.3913607512031 -0.28512550311514 -0.40052871188592 -0.28564124103995 -0.36790421903449 -0.39772307663933 -0.32858939192189 -0.36832954371213 -0.37830974930107 -0.23896517355524 -0.31130659102733 -0.50032786438506 -0.24595386307075 -0.30240043809949 -0.25436987803958 -0.21090849404202 -0.22035979472206 -0.34195156240091 -0.28011357310303 0.41597019105174 -0.16360264141243 -0.27242617547798 0.62027331253314 -0.19525025997832 0.46935167713086 -0.22994667655595 -0.25496246342501 -0.25974725998799 -0.26696885907707 -0.25594747646443 -0.25196250153082 -0.21603028273049 -0.26518832190234 0.42239825183542 0.428130166958 -0.24402537050778 0.30643788999748 -0.22505572798049 0.36189364202535 -0.22782899325337 0.07267774080139 -0.23560466025796 0.38870798548909 0.39236605024673 -0.20844685355709 0.37326039354806 -0.20893120779287 0.38415254272351 0.39868595004659 -0.20479894880055 -0.21072212028255 0.39467635212336 -0.21390628679436 -0.2017453288138 0.38231154701122 -0.18970105461832 0.36675479458924 -0.20737576173228 -0.19786235263732 0.1946628185428 0.36367584983008 -0.17341980386993 -0.19684138127858 0.37559218781322 0.35616595664501 -0.18850094051637 0.39886934024554 0.38523499065226 0.40358783789165 0.40522036850732 0.39318444394195 0.37503701710519 -0.18051606146612 0.40483163422788 -0.16855437989218 0.34680966941211 -0.14209086111893 0.33271119203031 -0.17864512320112 -0.1652865844064 0.25621388520304 -0.15824881930534 -0.17231964698132 -0.12720224102224 0.32311999702006 0.33710224020114 0.2957089926018 0.32427067334956 -0.18027648375275 -0.16072397916932 -0.1573796006437 -0.11938654919557 -0.15335832539233 -0.096847352788311 -0.14975842953293 -0.13406752371424 0.31235884331824 -0.13671759302703 0.24186041006745 -0.097072938667194 0.28044035799424 -0.14291464257776 0.20668464737806 -0.059134946269821 -0.11232220144153 -0.13382055631365 -0.11383487940877 -0.13794292149856 -0.11674284515597 -0.10556072336796 -0.11179862429616 -0.045259517909058 0.27580089539322 0.21222615989054 0.14734512359825 0.25589922542874 0.14342841390605 0.21322248378581 0.23626417796153 0.21400216982347 0.23580272389158 -0.22757321261841 -0.21915755385238 -0.21962745197564 0.65534880181912 0.66607349305192 0.67774644093999 -0.23795869874656 -0.22399794606575 -0.22352054128775 -0.26109530441487 -0.25775925305415 -0.26424345569081 -0.24952487347993 -0.24429398012132 -0.59176094710649 -0.57337539354766 -0.59388219601926 -0.36141752428407 -0.3616654480634 -0.36308257865672 -0.31345222950957 -0.29884128501557 -0.28781152821596 0.54043286883685 0.52932407819279 0.53669679814051 -0.36423578562957 -0.36382720661442 -0.39102898247797 -0.38807675009179 -0.3911185816198 -0.56744141883122 -0.56337198869713 -0.35255902801956 -0.35394044394706 0.5199525115903 0.48855640808106 0.50665643988534 -0.38465767624641 -0.38524698800605 -0.43393373483202 -0.4342200056782 -0.43341194703435 -0.43005092418423 -0.43810510725851 -0.43534302223914 -0.4398943988661 0.48598219478719 0.48820491590655 0.48708453051563 -0.39893157712399 -0.40165183877518 -0.39909383551861 -0.53124102606221 -0.54785053475916 -0.56355122179332 0.48763334185748 -0.39115415598743 -0.38866082390808 -0.38866866953718 -0.42189399941636 -0.41794132226718 -0.42888534462251 -0.39454579639346 -0.55970772644198 -0.36510183240379 -0.36702947920525 -0.36857686631064 -0.4914124140489 -0.49241530739288 -0.49175525131374 -0.52130250361658 -0.53655847649309 -0.5263460584379 -0.36250958991894 -0.36071506255594 -0.45674568753793 -0.45309440750572 -0.36333035087643 -0.36414321711264 -0.4621452144247 -0.39163946492456 -0.3908483606196 -0.20718954436985 -0.20787446611967 -0.21115628673641 -0.55081049333321 -0.54005220078859 0.47622984726285 0.46231404914375 0.45207061730857 -0.59533347001539 -0.60341893628249 0.52654533221937 0.48371266038866 0.54388408831366 0.86482444963833 0.90835469517056 -0.70972083353981 -0.74054722633305 -0.71122295470899 0.45539175852075 0.45332343915078 0.45353109852054 -0.60658310072244 -0.60124491924607 0.40053382452749 0.39583847215402 0.40414370481775 0.39860614861907 0.40727874213818 -0.88929765313454 -0.88800516677785 -0.83857867436912 0.46761290033777 0.47441099525223 0.92470806445706 0.84102244924588 0.69327195262503 0.81642682442005 0.5417956389968 0.60226317152355 0.61841154018611 0.66233356568502 0.6587251868815 0.48171808865724 0.40030359586666 0.39450869507946 0.39054171857738 0.48183426050684 0.48178249138768 -0.62681083582337 -0.60185889838432 -0.61860546036407 0.6495227411002 0.64991631692264 -0.60110250901594 -0.59711397078474 0.48000006738985 0.4784985342396 0.47947266898674 -0.64940970712102 -0.63507752723595 0.45067964290494 0.4584597397765 0.45614913908907 -0.67911613469464 -0.6879339099711 -0.53990440698594 -0.52583074935125 0.45119160525085 0.45006743983345 0.43992720744039 0.44208775691705 0.39117659739659 0.38280603554404 0.38132509514874 -0.46936077794032 -0.43553000287467 0.45228920672248 0.45173022689535 -0.3950270743025 -0.42436855968261 -0.4176934332516 0.47112047943593 -0.50478366287623 -0.5009349772943 -0.49575404298045 -0.49387493448543 0.51366670094237 0.50498523795472 -0.41103158241729 -0.40518855983768 -0.43030954442332 -0.43223000256077 -0.87007509251482 -0.85659266674076 -0.61446764199667 -0.67933180305789 0.65308687632729 0.6516961313518 0.63373027447703 0.64075661080821 0.61748686876432 -0.39216577054606 -0.39581108665862 -0.37768850672735 -0.37770758817641 0.45305855594907 0.45032545013539 0.45173238422789 0.54142478449089 0.52782660121106 -0.69074177227792 -0.66626393598316 -0.6503634491915 -0.51317308180424 -0.50260919240876 -0.41530146481117 -0.37969537411191 -0.37500336136489 -0.71984792052543 -0.64054264382604 0.52105033765251 0.47409001256801 -0.45845347210111 -0.45710255004594 -0.45821935885117 -0.60687994909378 -0.50109522159587 -0.43445278432605 -0.43344519688987 -0.4571251657893 -0.45708802755449 -0.36048233313853 -0.36524020699896 -0.4832719992559 -0.60028300506088 0.54539820430398 -0.42149684358606 -0.33030403132376 -0.32426047991212 -0.31379416771362 -0.43351214196548 -0.36246089871125 -0.37130258012897 -0.47973879859139 0.48132455454182 0.48134293868001 0.48163690088728 0.44573161098731 0.43628070497172 -0.30451779545828 -0.31206225216254 -0.31532595431428 0.45940010946578 0.48953920425598 0.45349263564673 0.44899413936366 -0.38443036655582 -0.42318821535886 -0.41048047706147 -0.44939313487433 0.44106968782008 0.43831357745593 0.43123355669182 0.48089719412755 0.46064474633956 -0.24640914221956 -0.23503032828007 -0.23749670159376 0.40033913660515 0.4105368734095 0.40493438373376 0.49075871736835 0.49787764413156 0.37627354587231 0.37988492218333 -0.38114888659266 -0.38771028739345 -0.37774299519318 -0.33777627677392 -0.34689647409039 0.48384833157735 0.44704254241229 -0.43451706990124 -0.57983014232476 -0.5626010785225 0.41789749966326 0.41541573426144 0.41151362266328 0.50276268921687 0.48214046892896 -0.41714497924583 -0.32889199493137 -0.32097203929093 -0.35014725259866 -0.34972406715478 -0.33094533567263 -0.31691069742156 0.50122821382084 0.4314907714859 0.4352524533754 0.4423569438634 0.44350534585665 -0.32418551827792 -0.30557777704386 -0.34024368601932 -0.35355906981311 -0.31482309395083 0.47102124690268 0.43969290911685 0.43770185743981 0.41817743305056 0.42125864681892 0.42339403456352 0.45477325201475 0.48453256051876 -0.39072161680831 -0.34241923048638 -0.35392896292202 -0.35551583408474 -0.3350239344671 0.43752804028149 0.44049911937153 0.43479873648371 0.44495870809487 -0.16512170096046 -0.16189428992584 -0.15649169197638 0.42135942338507 0.41794253450862 0.42353129043744 -0.60083038297358 -0.53057838451216 -0.50115770946344 -0.39249795958449 -0.21090399521198 -0.21633129672727 -0.20695934701836 0.43193451568872 0.43532274584498 -0.31352497922928 0.47639986992681 0.4807564153966 0.47574010793576 -0.29992806887839 -0.51463119415562 -0.50263879175395 -0.29931950647947 -0.29425780988142 -0.28457956911275 -0.21794631502325 -0.41821433449759 -0.40560561595975 0.48184978166434 0.44623794642711 0.45839597389143 0.42675790369433 0.42802081585929 -0.28125217230843 -0.28590954327125 -0.29546975025773 -0.29316019564748 -0.38468647739927 -0.55077995461176 -0.50255276044409 -0.50051059066776 -0.5004851954692 -0.50091409332033 0.46444309918484 0.48334414157811 0.54524647497231 -0.2900478391547 -0.28243621748352 -0.27642581695872 -0.2785645624164 -0.29171986444771 -0.30201453099968 -0.39187030279688 -0.39169502049551 -0.3622502517401 0.43671493372542 0.43578435601484 0.42144653919489 0.431922560683 0.33872465071613 0.33654817688343 0.35314950001978 0.41982689389038 0.41367408374448 -0.48863062406264 -0.28550547103729 -0.29531043369425 -0.28279340888621 -0.2580010336104 -0.44683163134224 -0.42860100023416 -0.39180278504117 0.43677047805752 0.43725703194777 -0.44292629181214 -0.56727071029361 -0.32377106744282 -0.34498515241446 -0.39904028272369 -0.27565323039148 -0.39573546445231 -0.3953934313818 -0.26895317899673 -0.27331181300162 -0.30001692101466 -0.2823258997871 -0.34945930901035 -0.38283278512971 -0.38581564902874 -0.36904376090848 -0.37253603553354 -0.34811132022495 -0.17841941012609 -0.19088285300263 -0.17964372086721 -0.30314933381968 -0.34567604991777 -0.32345635110901 0.29470217800894 -0.27746152159853 -0.253969858279 -0.25775616524623 -0.26486373088314 -0.34496131815091 -0.26336302806199 -0.27013928921508 -0.32752257475717 -0.30393712370743 -0.21267534230778 -0.21526889194545 -0.43885491574602 -0.23774852460777 -0.23922148152909 -0.25333458972508 -0.2166543384692 -0.23668356626824 -0.29352517367761 0.63310824172678 -0.52248992021175 -0.21342676681276 -0.19279272102241 -0.20279704128893 -0.18878042865509 -0.2131422332965 0.42887771160799 0.46502379579418 0.43891224119653 -0.27226108006889 0.2590531059643 -0.24139856192925 0.55401952768443 0.58836498692373 0.43278901023654 0.42550473626452 -0.27097393987224 -0.20988175713859 -0.24429292386821 -0.23339183056383 -0.34037945311666 -0.28030332580394 -0.26881156574234 0.44239567893002 -0.23077162013224 -0.24082396289808 -0.24189754501259 -0.23421807152591 -0.24678120950628 -0.27436689670799 -0.27460306179432 -0.26081794886019 -0.26163998706467 -0.25151812813995 -0.2666216637427 -0.26008423305449 -0.25591364633791 0.39305896569654 0.38873539480948 -0.24757161248265 -0.20313587971283 -0.20092578937029 -0.19714557813084 0.40607613773405 0.35942789507555 0.35899878247392 0.37427286620043 -0.24080024994863 -0.23507706058319 0.3891217576558 0.39225220775211 0.40208523483856 0.40947068479171 -0.20420870789017 -0.21042191221683 -0.21850559828154 -0.23243073326202 -0.22415036507492 -0.18355570997824 -0.17763353636076 -0.18809697348089 -0.059783776331658 0.19982364278686 -0.22201382720468 0.38243736185511 0.3794799417067 0.38785667516131 -0.19862459582908 -0.18926909377281 -0.18780460074737 -0.20597737703573 0.41308694130414 0.4108233631075 0.39097101131459 0.30317807669238 -0.09219671817505 0.41208483863466 -0.21402059467299 -0.224510379762 -0.15528316749378 -0.15109970590339 -0.16442468986749 0.28235245617374 0.31270419284818 0.30178903638191 0.18534749537082 0.2702455682633 -0.20246221014324 -0.19606413413047 -0.19485324398649 -0.1287974469494 -0.16811888589832 0.26565198958146 0.31635957169386 0.33657581826309 -0.19934129457279 -0.18593000743884 -0.19012959397595 -0.21894113395825 -0.21258871075269 -0.20847593530851 0.36854356402096 0.37532166288331 0.36251430194385 0.390759620836 0.36884861090961 0.37891741174115 0.32467848909092 0.40596557879188 -0.010917284498836 0.3658237675997 0.3731526047368 -0.1645295522769 -0.17042436929782 -0.16830359531855 -0.21766726870409 -0.19891033527444 -0.20374627798707 0.32498869145546 0.33500053924837 0.34688666669702 0.369228330805 0.3530545024393 0.36893491828941 -0.18276193910018 -0.17756336845896 -0.17713722715709 -0.17285454244477 -0.16947274033